# vtk DataFile Version 3.0
Volume example
ASCII
DATASET STRUCTURED_POINTS
DIMENSIONS 128 32 64  
ASPECT_RATIO 0.031250 0.031250 0.031250  
ORIGIN 0.000000 0.000000 0.000000  
POINT_DATA 262144  
SCALARS s float 1
LOOKUP_TABLE attribute_table
-29.100624
-47.189339
-105.996376
-48.613930
-75.889893
-361.186615
-69.036369
-24.521280
-20.023539
-14.026524
-9.436783
-6.718314
-5.617865
-4.047646
-2.734400
-2.468037
-2.545731
-2.156056
-1.587493
-1.588005
-1.144526
-1.175518
-1.176021
-0.925906
-1.276660
-1.426823
-1.287066
-1.283048
-1.566649
-2.021207
-2.488333
-2.876591
-4.131947
-5.916180
-9.204951
-14.323072
-20.853300
-49.001316
-146.944321
319.045074
-439.711456
-150.345032
-7.028528
-4.529285
-4.421797
-4.227410
-3.420474
-2.629562
-2.222693
-1.982485
-1.572079
-1.029861
-0.753996
-0.762905
-0.403425
-0.501775
-0.533409
-1.049026
-1.493763
-3.371839
-6.554254
-13.011845
-100.269554
-494.907440
-105.405060
-13.145184
-6.645199
-3.422199
-1.852379
-1.065450
-0.541826
-0.509692
-0.409788
-0.774757
-0.765663
-1.045742
-1.596263
-2.013060
-2.256531
-2.668926
-3.470945
-4.303037
-3.892837
-4.562953
-7.151311
-152.415176
-431.946289
316.544281
-147.048325
-48.375099
-20.546982
-13.765017
-9.063586
-6.043805
-4.070032
-2.833802
-2.450521
-1.990303
-1.542578
-1.263252
-1.267242
-1.404693
-1.256783
-0.911471
-1.157785
-1.157286
-1.126730
-1.563382
-1.562882
-2.122628
-2.506171
-2.429952
-2.692334
-3.985810
-5.532434
-6.618114
-9.298268
-13.830481
-19.686220
-25.669855
-68.592453
-363.141632
-77.407280
-49.177902
-107.297577
-47.228832
-477.559845
-489.895721
-4.195468
-3.134337
56.824421
-120.613861
-173.360703
-79.399628
-20.067591
-14.169208
-13.406678
-11.619808
-9.102321
-7.100095
-5.383322
-4.423708
-3.489011
-2.423648
-2.313862
-1.828611
-1.338334
-1.215457
-1.176891
-0.809962
-1.151439
-1.211840
-0.984457
-1.159503
-1.394644
-1.705338
-1.748812
-2.419282
-3.185202
-4.259264
-5.933462
-8.729122
-13.817677
-21.734213
-33.686363
-14.732305
-135.169891
-332.481598
-142.195908
-8.887155
-3.412470
-4.029091
-4.151687
-3.971841
-3.489536
-3.083401
-2.339326
-2.136156
-1.490033
-1.157383
-0.734085
-0.630020
-0.391584
-0.282589
-0.622617
-1.071080
-2.144148
-4.198510
-7.285729
-10.407704
-80.426460
-308.132538
-85.390533
-10.486496
-7.360985
-4.306293
-2.494353
-1.085579
-0.409618
-0.287059
-0.397652
-0.608264
-0.745241
-1.174889
-1.512236
-2.168098
-2.373822
-3.128261
-3.538258
-4.025735
-4.210079
-4.076142
-3.453952
-9.050655
-142.780075
-331.690704
-132.868896
-15.091162
-33.398842
-21.463219
-13.633174
-8.579454
-5.853328
-4.199435
-3.138549
-2.383331
-1.722732
-1.679416
-1.373424
-1.141682
-0.969208
-1.193078
-1.133550
-0.797342
-1.159424
-1.196611
-1.317564
-1.800357
-2.278256
-2.386632
-3.436024
-4.357367
-5.305322
-7.000319
-8.983701
-11.482230
-13.267838
-13.988067
-19.781393
-78.921822
-174.191940
-123.414070
56.320820
-3.491511
-433.499634
-271.081909
424.438904
418.216187
-50.572803
-53.791691
-32.613213
-14.196553
-5.636362
-4.242948
-5.086551
-6.614880
-7.172129
-7.022286
-5.651803
-4.999735
-4.259660
-2.957342
-2.315392
-1.990081
-1.373164
-1.038946
-0.898084
-1.188467
-0.801658
-0.852931
-0.962590
-1.247578
-1.200222
-1.886847
-2.310087
-3.242406
-4.213599
-5.611583
-7.720946
-11.218208
-16.440430
-18.996014
-24.692007
-136.464111
-194.100159
-51.535778
-6.441825
-2.605746
-3.135411
-3.751356
-3.883601
-3.620131
-3.508383
-2.766925
-2.400919
-1.996344
-1.460771
-0.919609
-0.534662
-0.431024
-0.144373
-0.203420
-0.849234
-1.879617
-3.973368
-5.805717
-6.245553
-7.602952
-55.242889
-153.167770
-56.134453
-7.544046
-6.267941
-5.842128
-3.655229
-1.873350
-0.702819
-0.206713
-0.146557
-0.437446
-0.542281
-0.932569
-1.295804
-2.023904
-2.433017
-2.802721
-3.552699
-3.662410
-3.925214
-3.788501
-3.164296
-2.638667
-6.566164
-52.061199
-193.635864
-134.480942
-24.238205
-18.967890
-16.318508
-10.879063
-7.640012
-5.545288
-4.159264
-3.197997
-2.277114
-1.672505
-1.182570
-1.228718
-0.947941
-0.839779
-0.789196
-1.163288
-1.230098
-1.028603
-1.352116
-1.959864
-2.280792
-2.913546
-4.198625
-4.930715
-5.579023
-6.477785
-7.101534
-6.566053
-5.062975
-4.211647
-5.540740
-13.990273
-32.477650
-54.173210
-54.135914
425.421112
-197.471817
-90.481842
223.128265
322.032806
-17.728661
-9.778395
-6.374287
-3.642330
-2.195661
-1.058116
-1.517404
-2.194091
-3.161746
-3.685914
-4.069452
-4.290159
-3.994503
-3.390237
-2.777465
-2.300748
-1.611841
-1.345032
-1.035573
-0.926746
-0.808207
-0.813733
-0.593325
-0.900291
-1.236909
-1.706487
-2.489117
-3.493631
-4.801399
-5.492155
-6.122678
-6.884346
-6.402685
-10.420538
-69.735321
-125.373901
-48.716255
-7.554735
-2.239282
-1.721486
-2.465143
-2.533105
-2.540856
-2.501142
-2.062766
-2.053406
-1.982279
-1.573363
-0.893641
-0.648135
-0.369698
-0.132805
-0.125435
-0.610292
-1.508807
-2.847433
-3.849149
-3.942080
-2.124913
-7.850203
-39.989513
-72.928314
-40.193611
-7.865298
-2.116182
-4.045469
-3.874658
-2.880105
-1.529498
-0.619814
-0.127697
-0.134787
-0.375627
-0.564764
-0.934161
-1.541137
-2.005721
-2.075267
-2.081632
-2.523703
-2.561335
-2.552142
-2.484135
-1.736877
-2.276865
-7.696665
-49.175362
-124.692223
-68.610573
-10.245511
-6.269781
-6.888668
-6.200668
-5.453997
-4.753325
-3.454046
-2.399209
-1.683351
-1.242361
-0.887318
-0.584459
-0.801174
-0.795578
-0.912322
-1.049396
-1.324621
-1.587802
-2.267383
-2.738097
-3.344089
-3.943658
-4.240456
-4.030383
-3.659716
-3.148913
-2.194111
-1.517205
-1.037549
-2.141873
-3.571163
-6.312829
-9.741597
-17.946486
320.539551
-408.675903
-517.658752
-532.010254
-20.721869
-3.782722
-2.142846
-1.640885
-1.578889
-1.003138
-0.556559
-0.265268
-0.489300
-1.074850
-1.569632
-2.115176
-2.276416
-2.402190
-2.384541
-2.395751
-1.815207
-1.573819
-1.310877
-1.074013
-0.697820
-0.593734
-0.511138
-0.571068
-0.803214
-1.242357
-1.737047
-2.599901
-3.196759
-4.102684
-4.329278
-3.265412
-1.950339
-3.586624
-25.535290
-72.535233
-56.693565
-14.538627
-3.299361
-2.048141
-1.790773
-1.782092
-1.686177
-1.691919
-1.549447
-1.660349
-1.495691
-1.209312
-0.845829
-0.528773
-0.200099
-0.024880
-0.088531
-0.454775
-1.094697
-2.156852
-3.004525
-2.634765
-1.167230
-1.612783
-10.034855
-26.809217
-36.098114
-26.586414
-10.285906
-1.978136
-1.178344
-2.586796
-2.963665
-2.180164
-1.246999
-0.462530
-0.090017
-0.058209
-0.231938
-0.630477
-0.852059
-1.218551
-1.507201
-1.670875
-1.556420
-1.699699
-1.693267
-1.790839
-1.803795
-2.075114
-3.363212
-14.763560
-56.960419
-71.917061
-24.965973
-3.494580
-2.155617
-3.304772
-4.336078
-4.089643
-3.175115
-2.576008
-1.927999
-1.226779
-0.792443
-0.562663
-0.503159
-0.584393
-0.687052
-1.057928
-1.291860
-1.522110
-1.791077
-2.365657
-2.357605
-2.379673
-2.284878
-2.106408
-1.568925
-1.080283
-0.494700
-0.261962
-0.533935
-0.967733
-1.540520
-1.610522
-2.119522
-3.754963
-20.745958
-422.900848
-616.455933
-19.746401
-2.689325
-1.472758
-1.099622
-1.001862
-1.007829
-0.824775
-0.448266
-0.225935
-0.120042
-0.186760
-0.415606
-0.648548
-1.145619
-1.100688
-1.228555
-1.414106
-1.231163
-0.987310
-0.912931
-0.706907
-0.501595
-0.339107
-0.255120
-0.335887
-0.568600
-1.015345
-1.720647
-2.495369
-3.057027
-2.789565
-1.806466
-0.507440
-1.417207
-9.595458
-32.626873
-45.705433
-24.145021
-6.593379
-2.141252
-1.154370
-1.029326
-1.277260
-1.157612
-1.059684
-0.918892
-0.932433
-0.825059
-0.726306
-0.445494
-0.226196
-0.049306
-0.072615
-0.402841
-1.411704
-2.346277
-2.619552
-2.219084
-0.859491
-0.389529
-3.489598
-9.769731
-16.227373
-19.540556
-16.416836
-10.159836
-3.619853
-0.415215
-0.813572
-2.315058
-2.931416
-2.401496
-1.432353
-0.410775
-0.072274
-0.086997
-0.226184
-0.445694
-0.727499
-0.825247
-0.931536
-0.916963
-1.059093
-1.159104
-1.279613
-1.032207
-1.575389
-2.181415
-6.713666
-24.381733
-45.627556
-32.170990
-9.314760
-1.343509
-0.526763
-1.850975
-2.817238
-3.060862
-2.487643
-1.709587
-1.006228
-0.562298
-0.331415
-0.251166
-0.333738
-0.494065
-0.697149
-0.906525
-1.131166
-1.212298
-1.400253
-1.219984
-1.097123
-1.144464
-0.653408
-0.454841
-0.207293
-0.118037
-0.213430
-0.428754
-0.795394
-0.979917
-0.979071
-1.077579
-1.178278
-2.674672
-203.744934
-47.143982
-2.644446
-1.141020
-1.131300
-0.984653
-1.031410
-0.965604
-0.766786
-0.751813
-0.454915
-0.253398
-0.115800
-0.199423
-0.278948
-0.296153
-0.301834
-0.619584
-0.495757
-0.589193
-0.525563
-0.396862
-0.284598
-0.392210
-0.268100
-0.274290
-0.453150
-0.734148
-1.338168
-1.734846
-1.729766
-1.685001
-0.766513
-0.259937
-1.121657
-4.745889
-13.418454
-25.021582
-24.148401
-11.821048
-3.799526
-1.364288
-0.772441
-1.008973
-0.551563
-0.697524
-0.505657
-0.515513
-0.433890
-0.503885
-0.431765
-0.078430
-0.138912
-0.326512
-0.716269
-1.521140
-3.074189
-3.879109
-2.926523
-1.016415
-0.323484
-1.732587
-4.763226
-7.840469
-9.764747
-10.191742
-9.858844
-7.993417
-4.689548
-1.826588
-0.462011
-1.191673
-2.973433
-3.470589
-3.115761
-1.547598
-0.731472
-0.275365
-0.139660
-0.075422
-0.430658
-0.500082
-0.384472
-0.509815
-0.498252
-0.693649
-0.547014
-1.011161
-0.777528
-1.389196
-3.869180
-11.959756
-24.216988
-24.830664
-13.145185
-4.565968
-1.046302
-0.261661
-0.803125
-1.721375
-1.749824
-1.738929
-1.333582
-0.728818
-0.448198
-0.270271
-0.263896
-0.386531
-0.281367
-0.392929
-0.578969
-0.585815
-0.494408
-0.619223
-0.305969
-0.331654
-0.283099
-0.181348
-0.121342
-0.242033
-0.437721
-0.726624
-0.743221
-0.940032
-1.006299
-0.962268
-1.110022
-1.124937
-70.954140
-16.082506
-0.818529
-0.937844
-1.231377
-1.264146
-1.281725
-1.159366
-1.133706
-1.171151
-1.114229
-0.752807
-0.670483
-0.656258
-0.301284
-0.155181
-0.119530
-0.168993
-0.168709
-0.143949
-0.120304
-0.087918
-0.024026
-0.037596
-0.056249
-0.197962
-0.626752
-1.228473
-1.538026
-1.413941
-0.796468
0.106890
-0.143283
-1.301249
-3.514872
-6.763833
-11.725866
-15.480899
-12.812183
-6.531334
-2.023830
-1.202278
-0.454500
-0.600616
-0.326196
-0.488315
-0.251732
-0.307806
-0.260951
-0.469746
-0.556892
-0.519252
-0.805714
-1.475818
-2.799835
-3.980488
-5.085679
-3.721741
-2.154609
-0.407976
-0.948636
-2.636136
-4.402715
-5.339936
-5.753946
-6.130714
-5.800971
-5.063714
-4.520318
-3.056714
-0.854448
-0.313858
-1.856937
-3.799103
-5.136872
-4.041269
-2.851756
-1.506575
-0.820121
-0.526364
-0.559707
-0.467283
-0.254697
-0.300821
-0.243576
-0.481533
-0.320690
-0.599499
-0.457167
-1.219803
-2.064737
-6.617705
-12.879053
-15.429283
-11.563684
-6.582303
-3.364306
-1.202089
-0.112678
0.077861
-0.845336
-1.472966
-1.445621
-1.226971
-0.622718
-0.196370
-0.055389
-0.037090
-0.024424
-0.088114
-0.120927
-0.144997
-0.149973
-0.171178
-0.121649
-0.154058
-0.296902
-0.614572
-0.437540
-0.782443
-1.088343
-1.144365
-1.138517
-1.135881
-1.258963
-1.243243
-1.211998
-0.924520
-35.180805
-8.042711
-0.695222
-1.119891
-1.611365
-1.346783
-1.192479
-1.438550
-1.358802
-1.586670
-1.566620
-1.767817
-1.616650
-1.516390
-1.036719
-0.611346
-0.537313
-0.294373
-0.131709
-0.019640
0.013151
0.056247
-0.017128
-0.042537
-0.332016
-0.693659
-1.301594
-1.533883
-0.980815
0.219931
0.592206
-0.177624
-2.083243
-3.837180
-4.915071
-6.459277
-7.839386
-8.508067
-6.502853
-3.361185
-1.354869
-0.512775
-0.488538
-0.242749
-0.219134
-0.203474
-0.202960
-0.441167
-0.605190
-0.765561
-1.054455
-1.631518
-3.002831
-5.147339
-8.306880
-9.106630
-7.480232
-2.838748
-1.585424
-0.963047
-2.080051
-2.919273
-3.100129
-3.437512
-3.386557
-3.161585
-3.411727
-3.431693
-3.240340
-2.837815
-2.066525
-1.041139
-1.267171
-2.886923
-7.408174
-9.218952
-8.445758
-5.245309
-2.960012
-1.660255
-1.090105
-0.771191
-0.603789
-0.435961
-0.195484
-0.196371
-0.212518
-0.238008
-0.491018
-0.521799
-1.379506
-3.405953
-6.544827
-8.500038
-7.768281
-6.343560
-4.771136
-3.686820
-1.954841
-0.120294
0.573826
0.364318
-1.005551
-1.606088
-1.301490
-0.688741
-0.327708
-0.041164
-0.015971
0.055591
0.012561
-0.029380
-0.043691
-0.280663
-0.528091
-0.598772
-1.017247
-1.489426
-1.568615
-1.735456
-1.537357
-1.500298
-1.334398
-1.476014
-1.172501
-1.329565
-1.592807
-1.108219
-26.172390
-5.256492
-1.306438
-1.335891
-1.445311
-1.557083
-1.324657
-1.686206
-2.137528
-2.036652
-2.431898
-2.412177
-2.812666
-2.290830
-2.102336
-1.865000
-0.955315
-0.918819
-0.344633
-0.147117
-0.183063
-0.170241
-0.460113
-0.750416
-1.649105
-2.246895
-2.479060
-0.512199
1.522898
1.186969
-0.944434
-2.852661
-3.812367
-4.398911
-4.404162
-4.294952
-4.730623
-4.752793
-3.311264
-1.479935
-0.609579
-0.247160
-0.186847
-0.040003
-0.124089
-0.433978
-0.624457
-0.807385
-1.458213
-2.037251
-3.299003
-5.234511
-9.734317
-15.053439
-19.088161
-14.802229
-8.156712
-3.291812
-2.252520
-1.862975
-2.268688
-2.621138
-2.029868
-1.691418
-1.994093
-2.039222
-1.780766
-1.746922
-2.343448
-2.492216
-2.319889
-2.218683
-2.308082
-2.922376
-7.297533
-15.014667
-19.130941
-15.314904
-9.913339
-5.221012
-3.470617
-2.060318
-1.471265
-0.808509
-0.620836
-0.429017
-0.117253
-0.033338
-0.184254
-0.251319
-0.621191
-1.499173
-3.334989
-4.757761
-4.704910
-4.239551
-4.315046
-4.275644
-3.662333
-2.690779
-0.827292
1.203806
1.217239
-0.605936
-2.509091
-2.237844
-1.629903
-0.737403
-0.450124
-0.232652
-0.177842
-0.142984
-0.328350
-0.901783
-0.977291
-1.833983
-2.066097
-2.252120
-2.769931
-2.375345
-2.396858
-2.007132
-2.084107
-1.664069
-1.307824
-1.539160
-1.431554
-1.324757
-18.063225
-3.411504
-1.021342
-1.365695
-1.516270
-1.745196
-1.667117
-1.626789
-1.994635
-2.617801
-3.101796
-3.655522
-3.870584
-3.729846
-2.844423
-2.577288
-1.581599
-1.472217
-0.987567
-0.593232
-0.491563
-0.965522
-1.670791
-3.511098
-5.072240
-5.268770
-0.009781
3.071869
1.769391
-1.982565
-4.460867
-4.878465
-4.058115
-3.056328
-2.686171
-2.768909
-2.735524
-2.375155
-1.571500
-0.840542
-0.294663
0.011307
-0.058834
-0.108543
-0.247943
-0.873613
-1.544916
-2.381503
-3.532838
-5.453544
-9.975327
-17.307661
-29.170912
-38.864277
-30.663311
-15.206500
-6.964305
-4.482321
-3.440181
-2.478433
-1.850703
-1.403222
-1.264785
-1.014378
-0.944163
-0.817640
-0.951332
-1.043349
-1.289741
-1.439573
-1.937325
-2.428037
-3.566659
-4.745291
-6.809165
-15.067084
-30.888882
-39.650589
-30.265316
-17.598305
-9.970078
-5.530735
-3.574539
-2.403139
-1.551457
-0.873118
-0.241599
-0.102038
-0.054790
0.012634
-0.298874
-0.851586
-1.584856
-2.378278
-2.722141
-2.739129
-2.638650
-2.985610
-3.951341
-4.714455
-4.255714
-1.797513
1.889338
2.876582
-0.160897
-5.306199
-5.032358
-3.459327
-1.608858
-0.966553
-0.503815
-0.578931
-0.968580
-1.426191
-1.564129
-2.579239
-2.799042
-3.675336
-3.817119
-3.608265
-3.062529
-2.586270
-1.970477
-1.607611
-1.650221
-1.730513
-1.504944
-1.356377
-9.742225
-2.819315
-0.977126
-1.237388
-1.816539
-1.639386
-1.541327
-1.950631
-2.568378
-3.186409
-4.344938
-4.828879
-5.398704
-5.028964
-4.851114
-3.440223
-2.822006
-2.147794
-1.363162
-1.579096
-1.814556
-3.093582
-6.080672
-10.512579
-7.990653
1.762112
6.097827
0.006994
-4.863671
-5.965956
-5.454366
-3.825904
-2.971856
-1.961884
-1.745231
-1.602881
-1.238706
-0.821110
-0.637471
-0.328745
-0.049364
-0.013827
-0.143853
-0.502248
-0.877565
-2.082129
-3.751571
-5.068492
-7.697937
-13.651995
-26.883530
-56.715523
-85.061951
-54.048798
-26.822289
-16.206776
-9.799603
-6.326399
-3.064727
-1.596280
-0.962004
-0.855139
-0.530826
-0.366122
-0.405561
-0.534900
-0.408625
-0.372703
-0.543050
-0.875636
-0.960265
-1.650675
-3.723282
-6.412817
-9.858765
-16.095808
-27.264404
-55.399136
-86.925583
-57.841190
-27.275192
-13.714830
-7.910661
-5.113747
-3.777312
-2.091094
-0.875272
-0.497351
-0.139820
-0.010289
-0.048777
-0.332635
-0.642002
-0.822131
-1.230815
-1.585777
-1.718480
-1.923545
-2.911013
-3.728791
-5.294314
-5.735709
-4.572122
-0.159634
6.008204
1.239872
-8.080758
-10.187693
-5.951367
-2.736244
-1.776919
-1.564342
-1.335468
-2.110208
-2.703476
-3.387341
-4.784625
-4.963334
-5.333200
-4.772148
-4.299984
-3.154504
-2.543210
-1.931430
-1.526363
-1.627019
-1.805265
-1.230771
-9.578790
-2.514170
-1.261823
-1.393741
-1.654180
-1.955301
-1.490766
-2.309442
-3.021363
-4.254237
-5.304423
-6.375977
-6.846782
-6.796355
-6.579818
-5.783227
-3.475433
-2.742508
-2.525591
-2.808726
-4.720371
-10.279787
-19.541910
-10.002920
14.042613
7.560869
-6.587389
-9.758043
-7.975646
-5.576775
-3.610991
-2.571016
-1.654841
-1.173096
-1.042661
-0.657452
-0.626645
-0.374625
-0.120929
-0.100333
-0.117334
-0.301634
-0.874236
-1.480936
-2.119111
-4.453797
-7.552213
-11.610147
-18.392595
-33.761688
-83.094917
-158.059799
-67.997528
-40.082783
-29.877777
-17.502138
-9.270767
-5.660652
-2.757471
-1.303636
-0.345326
-0.282179
-0.155537
-0.112585
-0.152400
-0.157448
-0.154439
-0.115561
-0.191329
-0.225190
-0.414327
-1.420114
-2.801898
-5.709892
-9.091955
-17.723577
-29.750769
-39.851227
-65.938820
-158.014862
-84.429276
-31.700413
-19.203552
-11.713435
-7.594575
-4.472203
-2.120534
-1.477867
-0.870194
-0.297761
-0.115304
-0.100562
-0.121204
-0.374702
-0.623392
-0.648508
-1.026294
-1.150748
-1.623107
-2.521116
-3.530067
-5.439758
-8.138045
-9.366899
-5.332574
7.776405
13.669710
-10.315097
-19.517933
-10.105121
-4.628464
-2.752863
-2.479587
-2.696969
-3.420268
-5.702219
-6.495445
-6.715791
-6.771800
-6.312217
-5.253506
-4.217226
-2.994850
-2.291156
-1.479026
-1.942188
-1.644523
-1.388970
-9.696477
-2.332568
-1.273134
-1.382688
-1.530250
-1.371418
-1.639318
-2.757326
-3.473876
-4.976770
-7.125256
-8.036806
-8.835118
-8.786949
-7.668576
-6.194351
-4.406128
-3.356323
-3.040449
-5.188380
-14.915941
-37.261463
16.970926
35.729126
-6.802014
-18.481642
-13.689326
-8.541873
-5.394874
-3.235132
-2.254161
-1.374686
-0.998192
-0.720037
-0.393821
-0.333642
-0.205704
-0.131979
-0.067614
-0.195392
-0.564945
-1.209975
-1.798553
-3.538541
-6.418634
-9.594232
-14.791472
-21.702690
-23.251009
-31.157967
-67.515411
28.949457
-55.914001
-42.372696
-25.670906
-15.001890
-8.087441
-3.917328
-2.103555
-0.683902
-0.266592
-0.024445
-0.037290
-0.038655
-0.007503
-0.000000
-0.007876
-0.039382
-0.038294
-0.026982
-0.270192
-0.687273
-2.114642
-3.936229
-8.117786
-13.793030
-25.727968
-42.275394
-54.569855
30.960217
-67.385643
-33.579880
-24.144667
-21.837965
-14.852940
-9.619803
-6.429024
-3.539496
-1.795220
-1.208329
-0.564267
-0.196187
-0.068733
-0.132281
-0.203014
-0.327073
-0.385471
-0.706043
-0.980399
-1.349309
-2.213727
-3.172604
-5.291033
-8.425460
-13.350831
-17.876083
-6.008014
35.337631
15.410687
-36.947037
-15.195915
-5.488591
-3.024129
-3.300884
-4.341192
-6.217035
-7.575479
-8.743863
-8.747216
-7.977014
-7.064577
-4.938311
-3.447869
-2.692540
-1.628349
-1.363776
-1.523093
-1.377298
-5.552984
-1.926058
-1.057647
-1.256627
-1.400842
-1.240765
-1.557606
-2.084929
-3.424624
-5.083563
-7.598922
-10.965362
-11.205071
-11.787703
-8.964645
-7.347595
-4.889524
-3.337858
-3.911811
-16.743439
-49.126568
132.468903
13.155492
-39.695854
-25.109793
-13.736281
-7.178777
-4.334035
-2.834877
-1.951664
-1.297910
-0.932559
-0.679003
-0.350248
-0.280341
-0.187015
-0.013382
-0.020613
-0.266963
-0.706808
-1.643036
-3.081579
-4.593862
-8.092316
-12.481090
-19.655750
-24.328537
-14.072360
58.382805
179.115219
85.186371
-51.949554
-43.578934
-29.558514
-19.348564
-11.154848
-5.172929
-2.417071
-1.482981
-0.425385
-0.139940
-0.051799
-0.026262
-0.029286
-0.031246
-0.031494
-0.030740
-0.027864
-0.024285
-0.048626
-0.137138
-0.424648
-1.482364
-2.419822
-5.175152
-10.062651
-19.351719
-29.586952
-45.892303
-49.595909
84.964546
178.600891
61.157700
-14.169034
-24.466757
-19.670923
-12.475334
-8.089480
-4.590182
-3.083376
-1.647384
-0.712941
-0.271219
-0.022025
-0.012225
-0.182643
-0.273052
-0.342420
-0.668466
-0.919065
-1.279715
-1.923269
-2.791129
-4.266076
-7.062963
-13.547566
-24.638834
-38.613701
14.663497
128.169662
-48.991982
-16.668858
-3.832170
-3.459810
-4.689415
-6.364500
-8.866998
-10.581220
-11.096100
-9.853669
-7.568146
-5.046737
-3.398909
-2.071299
-1.547523
-1.233349
-1.394489
-1.252133
-5.411691
-1.926058
-1.059552
-1.148102
-1.223784
-1.146509
-1.357422
-2.384796
-3.922571
-6.226283
-9.483285
-12.192645
-12.711921
-11.870658
-9.941783
-7.174751
-3.704478
-1.033816
5.791884
350.488678
199.014725
-104.130005
-42.637264
-18.605106
-9.420162
-5.621041
-3.553689
-2.268301
-1.762500
-1.019554
-0.817763
-0.844989
-0.669522
-0.476248
-0.233726
-0.076486
-0.052597
-0.202436
-0.759025
-2.052630
-4.329448
-6.935830
-11.491404
-18.827036
-25.106598
-37.593002
-62.089844
25.635550
-110.322632
-35.895550
-47.592979
-42.192272
-29.356379
-18.534428
-11.248688
-6.806317
-3.748314
-1.478708
-0.770591
-0.337704
-0.088211
-0.090915
-0.232775
-0.262668
-0.192933
-0.125946
-0.190914
-0.257938
-0.153017
-0.084232
-0.145619
-0.330423
-0.766114
-1.473479
-3.735620
-6.792675
-11.221703
-18.476488
-29.985418
-42.009491
-46.634747
-34.557171
-109.196518
22.957310
-62.657513
-37.878052
-24.866724
-18.758184
-11.460306
-6.932067
-4.342432
-2.068658
-0.771814
-0.207870
-0.052994
-0.073893
-0.227200
-0.468895
-0.717722
-0.835380
-0.805426
-1.006084
-1.743579
-2.240756
-3.459952
-5.536351
-9.382285
-18.387499
-42.077087
-101.852081
201.212051
341.318848
5.767535
-0.543943
-3.971105
-6.900195
-9.838848
-11.684562
-12.481454
-12.278347
-9.416462
-6.187457
-3.896870
-2.371183
-1.350219
-1.139464
-1.217103
-1.144484
-5.280790
-1.581544
-0.905052
-0.967872
-1.030678
-1.303712
-1.321804
-2.273755
-4.280904
-6.252861
-10.176970
-12.521884
-13.099959
-12.699816
-9.432379
-6.817861
-1.545379
88.932182
451.349518
300.169403
-32.364853
-19.387930
-9.506792
-5.623821
-3.593890
-2.634636
-1.953533
-1.439049
-1.301719
-1.040377
-0.943119
-0.751689
-0.559927
-0.639345
-0.494243
-0.409343
-0.199771
-0.876245
-2.653663
-6.080713
-11.263321
-18.491850
-28.592880
-46.383327
-89.056992
-106.613907
-211.130661
-251.357773
-91.619698
-54.131222
-36.825066
-24.865026
-16.207640
-10.927457
-7.015077
-4.503339
-2.015436
-0.747060
-0.294014
-0.238705
-0.230724
-0.462751
-0.551471
-0.484415
-0.523469
-0.534884
-0.519804
-0.477238
-0.540673
-0.433359
-0.218808
-0.229828
-0.288797
-0.746588
-1.931765
-4.416467
-6.988538
-10.877207
-16.120668
-24.719738
-36.574696
-53.742447
-90.948547
-249.354980
-211.211151
-108.474968
-87.043098
-45.613117
-28.394894
-18.428389
-11.291041
-6.124959
-2.684234
-0.889285
-0.202103
-0.408240
-0.490636
-0.562424
-0.546489
-0.823257
-0.935384
-1.031873
-1.292645
-1.427945
-1.942344
-2.574383
-3.572851
-5.596374
-9.454902
-19.220617
-33.865444
292.889069
464.368988
93.697670
-2.266259
-7.345834
-9.401419
-12.610053
-12.904236
-12.441544
-10.117502
-6.217258
-4.260274
-2.263337
-1.314984
-1.298052
-1.026094
-0.965513
-5.168806
-1.581544
-0.903925
-0.620854
-0.610592
-0.857853
-1.183423
-2.088199
-4.054063
-6.636084
-10.844761
-12.963470
-14.308891
-11.561945
-10.564204
-22.031702
-11.211244
329.074371
361.806122
-2.383575
-5.089263
-3.907416
-2.976405
-2.152417
-1.839966
-1.663453
-1.599281
-1.516111
-1.398652
-1.244259
-1.141866
-1.267471
-1.271520
-1.164168
-1.154443
-1.313422
-1.221870
-2.524324
-6.374737
-16.096306
-32.672371
-60.229809
-123.998199
-148.931610
-236.231873
-249.066025
-131.216400
-70.148148
-43.509212
-29.176378
-20.343588
-13.591553
-8.793096
-5.320807
-3.790025
-2.054717
-0.838278
-0.273461
-0.095535
-0.163685
-0.344825
-0.603043
-0.935283
-1.085482
-0.988673
-0.817624
-0.982701
-1.072638
-0.918598
-0.585895
-0.329794
-0.152942
-0.089657
-0.270895
-0.832686
-2.048246
-3.773484
-5.292206
-8.739257
-13.491739
-20.183012
-28.923071
-42.810642
-69.482239
-129.337799
-246.309570
-234.080688
-149.593323
-123.395294
-59.840054
-32.584789
-16.194910
-6.440360
-2.549987
-1.228573
-1.312984
-1.149352
-1.159717
-1.203357
-1.264183
-1.131185
-1.240507
-1.396089
-1.515140
-1.598793
-1.659376
-1.836111
-2.149985
-2.976196
-4.098681
-5.124671
-2.047759
366.799347
329.776245
-11.339455
-21.718185
-11.629134
-11.590252
-14.262395
-12.955936
-10.799930
-6.614431
-4.043666
-2.084561
-1.180609
-0.854751
-0.607915
-0.619241
-9.074169
-1.299329
-0.623960
-0.567564
-0.505964
-0.825613
-1.267598
-2.184497
-4.075859
-6.609723
-10.690764
-12.019164
-13.091703
-13.046790
0.137695
92.670517
110.785835
-54.649464
-3.591597
-2.168331
-1.869948
-2.051710
-1.860037
-1.916226
-2.003533
-1.889155
-1.830667
-1.938258
-1.886878
-1.856337
-2.025154
-2.283409
-2.040852
-2.615988
-3.421933
-3.452667
-4.499146
-8.628206
-18.691050
-64.903732
-277.447235
-217.659683
-270.952637
-242.122742
-126.776756
-65.564728
-40.098904
-26.753094
-17.914606
-13.481419
-8.936825
-6.174803
-4.694610
-2.751012
-1.721101
-0.950308
-0.545185
-0.050625
-0.014625
-0.179154
-0.410978
-1.072675
-1.471545
-1.571931
-1.758677
-1.570053
-1.717497
-1.576441
-1.446529
-1.047860
-0.392514
-0.204610
-0.012862
-0.053793
-0.548037
-0.923092
-1.718307
-2.701599
-4.665011
-6.129786
-8.859767
-13.313892
-19.242037
-26.547407
-39.689152
-64.986427
-122.534172
-238.773453
-269.213226
-216.743469
-275.501190
-64.976273
-18.843216
-8.568744
-4.506984
-3.453688
-3.426854
-2.616760
-2.039819
-2.289479
-2.028991
-1.860070
-1.893664
-1.945319
-1.837238
-1.897820
-2.014392
-1.925130
-1.867926
-2.063035
-1.973783
-2.188003
-3.657771
-54.999348
113.678711
93.928696
-0.863050
-13.342625
-13.104788
-12.075481
-10.600755
-6.620445
-4.084445
-2.208291
-1.273013
-0.826839
-0.505110
-0.566076
-8.713769
-0.793055
-0.532327
-0.285511
-0.359350
-0.717074
-1.318831
-2.332641
-3.419042
-6.282263
-9.107835
-9.237150
-5.918767
9.530087
13.039130
-23.906002
-20.821655
-5.356694
-2.150491
-2.139322
-1.955708
-1.691053
-2.025630
-1.851250
-1.832574
-1.859403
-2.027666
-2.215585
-2.357630
-2.676348
-3.246543
-4.150781
-5.836880
-7.545556
-10.272249
-15.582901
-29.729679
-73.766136
-453.612000
-501.332886
-424.881165
-266.816895
-96.365852
-49.174728
-31.164543
-21.532581
-14.908104
-10.859699
-7.509046
-5.361977
-3.796168
-2.811075
-1.929899
-1.480459
-0.610313
-0.528227
-0.245185
-0.123639
-0.100668
-0.216506
-0.744884
-1.517159
-2.070374
-2.637455
-2.774208
-2.569261
-2.483893
-2.607921
-2.342656
-1.480679
-0.721987
-0.207943
-0.101505
-0.078441
-0.312143
-0.462150
-0.663855
-1.373731
-1.852098
-2.770751
-3.765560
-5.312643
-7.508724
-10.747771
-14.752280
-21.453402
-30.499903
-48.665470
-95.320297
-263.919189
-421.568695
-501.325745
-458.339752
-73.914406
-29.637001
-15.682243
-10.336867
-7.591787
-5.870987
-4.173587
-3.262380
-2.690693
-2.371392
-2.227902
-2.040218
-1.872301
-1.846195
-1.864426
-2.043287
-1.706388
-1.871881
-2.165509
-2.185253
-5.452852
-20.645393
-23.511923
15.199930
9.779198
-4.526368
-9.103359
-8.199966
-6.479765
-3.573977
-2.833135
-1.284156
-0.725198
-0.362362
-0.285439
-8.594674
-0.636081
-0.286509
-0.323785
-0.782673
-1.227921
-2.351074
-2.872500
-3.294148
-3.688146
-3.442284
-3.154251
-4.375008
-11.429503
-15.716664
-10.421537
-4.341659
-2.312096
-2.016437
-1.721902
-1.858050
-2.096250
-2.007957
-2.026169
-2.314865
-2.440772
-2.739856
-3.296488
-3.940361
-5.398245
-6.562768
-9.269257
-13.497757
-20.371271
-33.618362
-67.122482
-155.734024
-321.640106
-463.694366
-534.430115
-39.169575
-21.861187
-13.865366
-10.670609
-7.581220
-6.246394
-4.584575
-3.568219
-2.096205
-1.767861
-1.478151
-0.945216
-0.823022
-0.633361
-0.679580
-0.705508
-0.620978
-0.495172
-0.412461
-0.348973
-0.713101
-1.539295
-2.732177
-4.038756
-4.041553
-3.813063
-4.016284
-3.604722
-2.842347
-1.738231
-0.688221
-0.350163
-0.449463
-0.407857
-0.557967
-0.771755
-0.633386
-0.724274
-0.883575
-0.836147
-1.435946
-1.835179
-2.077939
-3.532181
-4.514988
-6.049114
-7.557553
-10.560138
-13.720626
-21.648582
-38.943996
-537.116699
-465.469025
-327.685242
-157.906723
-68.011528
-34.020660
-20.593197
-13.637380
-9.356991
-6.621721
-5.449788
-3.974363
-3.325577
-2.765102
-2.463847
-2.336989
-2.046880
-2.029202
-2.178046
-1.896222
-2.192937
-2.580924
-2.350843
-4.415996
-10.156481
-15.765165
-11.157425
-4.148042
-3.004478
-3.544100
-3.759165
-3.380192
-2.926306
-2.401306
-1.253458
-0.792729
-0.325788
-8.320204
-0.319961
-0.562591
-0.588059
-1.400855
-2.520298
-2.930058
-3.128438
-1.402097
-0.555221
-1.246336
-4.721432
-7.886914
-7.718162
-5.196661
-3.075727
-2.274450
-2.020941
-2.103331
-1.749218
-1.474044
-2.232148
-2.004683
-2.347862
-2.734621
-3.027608
-4.392191
-5.448113
-6.417709
-8.983149
-12.280167
-17.399498
-26.142900
-42.246021
-69.922668
-106.060349
-122.047310
-177.728699
-140.312424
-30.751389
-4.120992
-1.150881
-1.028780
-0.502765
-0.788072
-0.277639
-0.878317
-0.664145
-0.522431
-0.815320
-0.775426
-1.132585
-1.013969
-1.067179
-1.368691
-1.381888
-1.337900
-0.947343
-0.902053
-0.882773
-1.045779
-1.750405
-3.661746
-5.409136
-6.015179
-6.129955
-5.973995
-5.399136
-3.453510
-1.700206
-1.051114
-0.900803
-0.909272
-0.968263
-1.251816
-1.475074
-1.257247
-0.994519
-1.109499
-1.115789
-0.704111
-0.815402
-0.523050
-0.659913
-0.870035
-0.297071
-0.774870
-0.487705
-1.002427
-1.105111
-3.682779
-29.725843
-141.593307
-182.166458
-123.382645
-107.681931
-70.443336
-42.875519
-26.512205
-17.628292
-12.434346
-9.092196
-6.492571
-5.510756
-4.441382
-3.060865
-2.764730
-2.375033
-2.436854
-2.259463
-1.587454
-1.773045
-2.133389
-2.052062
-2.311752
-3.126041
-5.298168
-7.784106
-7.871302
-4.615467
-1.137043
-0.541936
-1.478907
-3.245812
-3.024077
-2.576378
-1.428155
-0.597370
-16.475927
-0.288205
-0.863482
-1.375195
-2.598054
-3.435600
-3.417681
-1.712239
0.078741
-0.534989
-2.576992
-3.801616
-3.674570
-2.692210
-2.462790
-1.786999
-1.564446
-1.582853
-1.642215
-1.452865
-2.019016
-2.347256
-2.660120
-2.933386
-3.213119
-4.672481
-6.002589
-7.022147
-9.441994
-12.565594
-17.922668
-24.975071
-33.384487
-40.847298
-42.754059
-26.758768
-22.846006
-58.069019
-44.013588
-13.341930
-3.221910
-0.701107
-0.040397
-0.178462
-0.408583
-0.849994
-1.002728
-1.179177
-1.347761
-1.580306
-1.824813
-1.792940
-2.005767
-2.277001
-2.225057
-2.456722
-1.918678
-1.914424
-1.675368
-1.200495
-0.950020
-1.900809
-4.180256
-7.366467
-9.149026
-9.112429
-8.610594
-6.933008
-4.462752
-1.932612
-0.918315
-1.124346
-1.747431
-2.000238
-1.919739
-2.559335
-2.285715
-2.162438
-2.000917
-1.823614
-1.887512
-1.483680
-1.344176
-1.175310
-0.998784
-0.844489
-0.403474
-0.171638
-0.026343
-0.861389
-2.998961
-12.886888
-43.857224
-59.186989
-23.428312
-26.625988
-43.703224
-41.408726
-33.915451